# vtk DataFile Version 2.0
Unstructured Grid Example
ASCII
DATASET UNSTRUCTURED_GRID
POINTS 3 float
0.0 0.0 0.0
1.0 0.0 0.0
0.0 1.0 0.0
CELLS 1 4
3 0 1 2 
CELL_TYPES 1
5
POINT_DATA 3
SCALARS nodeField float 1
LOOKUP_TABLE default
0.0
10.0
20.0
CELL_DATA 1
SCALARS elementField float 1
LOOKUP_TABLE default
10.0
