# vtk DataFile Version 2.0
Unstructured Grid Example
ASCII
DATASET UNSTRUCTURED_GRID
POINTS 4 float
0.0 0.0 0.0
1.0 0.0 0.0
0.0 1.0 0.0
1.0 1.0 0.0
CELLS 1 5
4 0 1 3 2 
CELL_TYPES 1
9
POINT_DATA 4
VECTORS vectorFieldOutput float
LOOKUP_TABLE default
2.0 1.0 0.0
2.0 1.0 0.0
5.0 1.0 0.0
10.0 1.0 0.0
