# vtk DataFile Version 2.0
Unstructured Grid Example
ASCII
DATASET UNSTRUCTURED_GRID
POINTS 729 float
1.0 0.0 0.0
0.999764859676 0.0216844417155 0.0
0.996240019798 0.0866358205676 0.0
0.981013715267 0.193938493729 0.0
0.940404593945 0.340057730675 0.0
0.856599450111 0.515981912613 0.0
0.710420250893 0.70377767086 0.0
0.486583858728 0.873633861542 0.0
0.18186545372 0.983323395252 0.0
1.125 0.0 0.0
1.12473547459 0.0243949964643 0.0
1.12076997757 0.0974652990699 0.0
1.10364043713 0.218180805445 0.0
1.05795514584 0.38256496191 0.0
0.963674366474 0.580479621887 0.0
0.799222767353 0.791749894619 0.0
0.547406852245 0.982838094234 0.0
0.204598665237 1.10623884201 0.0
1.25 0.0 0.0
1.24970602989 0.0271055549383 0.0
1.24530005455 0.108294785023 0.0
1.22626709938 0.242423117161 0.0
1.17550575733 0.425072163343 0.0
1.07074928284 0.644977390766 0.0
0.888025283813 0.879722118378 0.0
0.60822981596 1.09204232693 0.0
0.22733181715 1.22915422916 0.0
1.375 0.0 0.0
1.37467670441 0.029816120863 0.0
1.36983001232 0.119124263525 0.0
1.34889388084 0.266665428877 0.0
1.29305636883 0.467579364777 0.0
1.1778242588 0.709475159645 0.0
0.976827859879 0.967694282532 0.0
0.669052779675 1.20124650002 0.0
0.250065028667 1.35206961632 0.0
1.5 0.0 0.0
1.49964725971 0.0325266718864 0.0
1.49435997009 0.129953742027 0.0
1.4715205431 0.290907740593 0.0
1.41060686111 0.510086596012 0.0
1.28489923477 0.773972868919 0.0
1.06563043594 1.05566644669 0.0
0.729875802994 1.31045079231 0.0
0.272798210382 1.47498512268 0.0
1.625 0.0 0.0
1.62461793423 0.0352371931076 0.0
1.61889004707 0.140783190727 0.0
1.59414732456 0.315150052309 0.0
1.52815747261 0.552593827248 0.0
1.39197409153 0.838470578194 0.0
1.1544328928 1.14363873005 0.0
0.790698766708 1.41965508461 0.0
0.295531392097 1.59790050983 0.0
1.75 0.0 0.0
1.74958848953 0.0379477739334 0.0
1.74342000484 0.151612699032 0.0
1.71677398682 0.339392364025 0.0
1.64570808411 0.595100998878 0.0
1.4990490675 0.902968347073 0.0
1.24323546886 1.2316108942 0.0
0.851521730423 1.5288592577 0.0
0.318264573812 1.72081589699 0.0
1.875 0.0 0.0
1.87455916405 0.0406583547592 0.0
1.86795008183 0.162442147732 0.0
1.83940076828 0.363634705544 0.0
1.76325857639 0.637608230114 0.0
1.60612392426 0.967466115952 0.0
1.33203792572 1.31958317757 0.0
0.912344753742 1.63806343079 0.0
0.340997755527 1.84373140335 0.0
2.0 0.0 0.0
1.99952971935 0.0433688759804 0.0
1.9924800396 0.173271656036 0.0
1.96202743053 0.387876987457 0.0
1.88080918789 0.680115461349 0.0
1.71319890022 1.03196382523 0.0
1.42084050179 1.40755534172 0.0
0.973167717457 1.74726772308 0.0
0.363730937243 1.9666467905 0.0
1.0 0.0 0.0625
0.999764859676 0.0216844417155 0.0625
0.996240019798 0.0866358205676 0.0625
0.981013715267 0.193938493729 0.0625
0.940404593945 0.340057730675 0.0625
0.856599450111 0.515981912613 0.0625
0.710420250893 0.70377767086 0.0625
0.486583858728 0.873633861542 0.0625
0.18186545372 0.983323395252 0.0625
1.125 0.0 0.0625
1.12473547459 0.0243949964643 0.0625
1.12076997757 0.0974652990699 0.0625
1.10364043713 0.218180805445 0.0625
1.05795514584 0.38256496191 0.0625
0.963674366474 0.580479621887 0.0625
0.799222767353 0.791749894619 0.0625
0.547406852245 0.982838094234 0.0625
0.204598665237 1.10623884201 0.0625
1.25 0.0 0.0625
1.24970602989 0.0271055549383 0.0625
1.24530005455 0.108294785023 0.0625
1.22626709938 0.242423117161 0.0625
1.17550575733 0.425072163343 0.0625
1.07074928284 0.644977390766 0.0625
0.888025283813 0.879722118378 0.0625
0.60822981596 1.09204232693 0.0625
0.22733181715 1.22915422916 0.0625
1.375 0.0 0.0625
1.37467670441 0.029816120863 0.0625
1.36983001232 0.119124263525 0.0625
1.34889388084 0.266665428877 0.0625
1.29305636883 0.467579364777 0.0625
1.1778242588 0.709475159645 0.0625
0.976827859879 0.967694282532 0.0625
0.669052779675 1.20124650002 0.0625
0.250065028667 1.35206961632 0.0625
1.5 0.0 0.0625
1.49964725971 0.0325266718864 0.0625
1.49435997009 0.129953742027 0.0625
1.4715205431 0.290907740593 0.0625
1.41060686111 0.510086596012 0.0625
1.28489923477 0.773972868919 0.0625
1.06563043594 1.05566644669 0.0625
0.729875802994 1.31045079231 0.0625
0.272798210382 1.47498512268 0.0625
1.625 0.0 0.0625
1.62461793423 0.0352371931076 0.0625
1.61889004707 0.140783190727 0.0625
1.59414732456 0.315150052309 0.0625
1.52815747261 0.552593827248 0.0625
1.39197409153 0.838470578194 0.0625
1.1544328928 1.14363873005 0.0625
0.790698766708 1.41965508461 0.0625
0.295531392097 1.59790050983 0.0625
1.75 0.0 0.0625
1.74958848953 0.0379477739334 0.0625
1.74342000484 0.151612699032 0.0625
1.71677398682 0.339392364025 0.0625
1.64570808411 0.595100998878 0.0625
1.4990490675 0.902968347073 0.0625
1.24323546886 1.2316108942 0.0625
0.851521730423 1.5288592577 0.0625
0.318264573812 1.72081589699 0.0625
1.875 0.0 0.0625
1.87455916405 0.0406583547592 0.0625
1.86795008183 0.162442147732 0.0625
1.83940076828 0.363634705544 0.0625
1.76325857639 0.637608230114 0.0625
1.60612392426 0.967466115952 0.0625
1.33203792572 1.31958317757 0.0625
0.912344753742 1.63806343079 0.0625
0.340997755527 1.84373140335 0.0625
2.0 0.0 0.0625
1.99952971935 0.0433688759804 0.0625
1.9924800396 0.173271656036 0.0625
1.96202743053 0.387876987457 0.0625
1.88080918789 0.680115461349 0.0625
1.71319890022 1.03196382523 0.0625
1.42084050179 1.40755534172 0.0625
0.973167717457 1.74726772308 0.0625
0.363730937243 1.9666467905 0.0625
1.0 0.0 0.125
0.999764859676 0.0216844417155 0.125
0.996240019798 0.0866358205676 0.125
0.981013715267 0.193938493729 0.125
0.940404593945 0.340057730675 0.125
0.856599450111 0.515981912613 0.125
0.710420250893 0.70377767086 0.125
0.486583858728 0.873633861542 0.125
0.18186545372 0.983323395252 0.125
1.125 0.0 0.125
1.12473547459 0.0243949964643 0.125
1.12076997757 0.0974652990699 0.125
1.10364043713 0.218180805445 0.125
1.05795514584 0.38256496191 0.125
0.963674366474 0.580479621887 0.125
0.799222767353 0.791749894619 0.125
0.547406852245 0.982838094234 0.125
0.204598665237 1.10623884201 0.125
1.25 0.0 0.125
1.24970602989 0.0271055549383 0.125
1.24530005455 0.108294785023 0.125
1.22626709938 0.242423117161 0.125
1.17550575733 0.425072163343 0.125
1.07074928284 0.644977390766 0.125
0.888025283813 0.879722118378 0.125
0.60822981596 1.09204232693 0.125
0.22733181715 1.22915422916 0.125
1.375 0.0 0.125
1.37467670441 0.029816120863 0.125
1.36983001232 0.119124263525 0.125
1.34889388084 0.266665428877 0.125
1.29305636883 0.467579364777 0.125
1.1778242588 0.709475159645 0.125
0.976827859879 0.967694282532 0.125
0.669052779675 1.20124650002 0.125
0.250065028667 1.35206961632 0.125
1.5 0.0 0.125
1.49964725971 0.0325266718864 0.125
1.49435997009 0.129953742027 0.125
1.4715205431 0.290907740593 0.125
1.41060686111 0.510086596012 0.125
1.28489923477 0.773972868919 0.125
1.06563043594 1.05566644669 0.125
0.729875802994 1.31045079231 0.125
0.272798210382 1.47498512268 0.125
1.625 0.0 0.125
1.62461793423 0.0352371931076 0.125
1.61889004707 0.140783190727 0.125
1.59414732456 0.315150052309 0.125
1.52815747261 0.552593827248 0.125
1.39197409153 0.838470578194 0.125
1.1544328928 1.14363873005 0.125
0.790698766708 1.41965508461 0.125
0.295531392097 1.59790050983 0.125
1.75 0.0 0.125
1.74958848953 0.0379477739334 0.125
1.74342000484 0.151612699032 0.125
1.71677398682 0.339392364025 0.125
1.64570808411 0.595100998878 0.125
1.4990490675 0.902968347073 0.125
1.24323546886 1.2316108942 0.125
0.851521730423 1.5288592577 0.125
0.318264573812 1.72081589699 0.125
1.875 0.0 0.125
1.87455916405 0.0406583547592 0.125
1.86795008183 0.162442147732 0.125
1.83940076828 0.363634705544 0.125
1.76325857639 0.637608230114 0.125
1.60612392426 0.967466115952 0.125
1.33203792572 1.31958317757 0.125
0.912344753742 1.63806343079 0.125
0.340997755527 1.84373140335 0.125
2.0 0.0 0.125
1.99952971935 0.0433688759804 0.125
1.9924800396 0.173271656036 0.125
1.96202743053 0.387876987457 0.125
1.88080918789 0.680115461349 0.125
1.71319890022 1.03196382523 0.125
1.42084050179 1.40755534172 0.125
0.973167717457 1.74726772308 0.125
0.363730937243 1.9666467905 0.125
1.0 0.0 0.1875
0.999764859676 0.0216844417155 0.1875
0.996240019798 0.0866358205676 0.1875
0.981013715267 0.193938493729 0.1875
0.940404593945 0.340057730675 0.1875
0.856599450111 0.515981912613 0.1875
0.710420250893 0.70377767086 0.1875
0.486583858728 0.873633861542 0.1875
0.18186545372 0.983323395252 0.1875
1.125 0.0 0.1875
1.12473547459 0.0243949964643 0.1875
1.12076997757 0.0974652990699 0.1875
1.10364043713 0.218180805445 0.1875
1.05795514584 0.38256496191 0.1875
0.963674366474 0.580479621887 0.1875
0.799222767353 0.791749894619 0.1875
0.547406852245 0.982838094234 0.1875
0.204598665237 1.10623884201 0.1875
1.25 0.0 0.1875
1.24970602989 0.0271055549383 0.1875
1.24530005455 0.108294785023 0.1875
1.22626709938 0.242423117161 0.1875
1.17550575733 0.425072163343 0.1875
1.07074928284 0.644977390766 0.1875
0.888025283813 0.879722118378 0.1875
0.60822981596 1.09204232693 0.1875
0.22733181715 1.22915422916 0.1875
1.375 0.0 0.1875
1.37467670441 0.029816120863 0.1875
1.36983001232 0.119124263525 0.1875
1.34889388084 0.266665428877 0.1875
1.29305636883 0.467579364777 0.1875
1.1778242588 0.709475159645 0.1875
0.976827859879 0.967694282532 0.1875
0.669052779675 1.20124650002 0.1875
0.250065028667 1.35206961632 0.1875
1.5 0.0 0.1875
1.49964725971 0.0325266718864 0.1875
1.49435997009 0.129953742027 0.1875
1.4715205431 0.290907740593 0.1875
1.41060686111 0.510086596012 0.1875
1.28489923477 0.773972868919 0.1875
1.06563043594 1.05566644669 0.1875
0.729875802994 1.31045079231 0.1875
0.272798210382 1.47498512268 0.1875
1.625 0.0 0.1875
1.62461793423 0.0352371931076 0.1875
1.61889004707 0.140783190727 0.1875
1.59414732456 0.315150052309 0.1875
1.52815747261 0.552593827248 0.1875
1.39197409153 0.838470578194 0.1875
1.1544328928 1.14363873005 0.1875
0.790698766708 1.41965508461 0.1875
0.295531392097 1.59790050983 0.1875
1.75 0.0 0.1875
1.74958848953 0.0379477739334 0.1875
1.74342000484 0.151612699032 0.1875
1.71677398682 0.339392364025 0.1875
1.64570808411 0.595100998878 0.1875
[...]
POINT_DATA 729
TENSORS s float
0.0 0.0 0.0
0.0 0.0 0.0
0.0 0.0 0.0

0.09375 0.0 0.09375
0.0 0.0 0.0
0.09375 0.0 0.0087890625

0.1875 0.0 0.1875
0.0 0.0 0.0
0.1875 0.0 0.03515625

0.28125 0.0 0.28125
0.0 0.0 0.0
0.28125 0.0 0.0791015625

0.375 0.0 0.375
0.0 0.0 0.0
0.375 0.0 0.140625

0.46875 0.0 0.46875
0.0 0.0 0.0
0.46875 0.0 0.2197265625

0.5625 0.0 0.5625
0.0 0.0 0.0
0.5625 0.0 0.31640625

0.65625 0.0 0.65625
0.0 0.0 0.0
0.65625 0.0 0.4306640625

0.75 0.0 0.75
0.0 0.0 0.0
0.75 0.0 0.5625

0.0 0.015625 0.125
0.015625 0.125 0.0
0.125 0.0 0.0

0.09375 0.015625 0.21875
0.015625 0.125 0.0
0.21875 0.0 0.0087890625

0.1875 0.015625 0.3125
0.015625 0.125 0.0
0.3125 0.0 0.03515625

0.28125 0.015625 0.40625
0.015625 0.125 0.0
0.40625 0.0 0.0791015625

0.375 0.015625 0.5
0.015625 0.125 0.0
0.5 0.0 0.140625

0.46875 0.015625 0.59375
0.015625 0.125 0.0
0.59375 0.0 0.2197265625

0.5625 0.015625 0.6875
0.015625 0.125 0.0
0.6875 0.0 0.31640625

0.65625 0.015625 0.78125
0.015625 0.125 0.0
0.78125 0.0 0.4306640625

0.75 0.015625 0.875
0.015625 0.125 0.0
0.875 0.0 0.5625

0.0 0.0625 0.25
0.0625 0.25 0.0
0.25 0.0 0.0

0.09375 0.0625 0.34375
0.0625 0.25 0.0
0.34375 0.0 0.0087890625

0.1875 0.0625 0.4375
0.0625 0.25 0.0
0.4375 0.0 0.03515625

0.28125 0.0625 0.53125
0.0625 0.25 0.0
0.53125 0.0 0.0791015625

0.375 0.0625 0.625
0.0625 0.25 0.0
0.625 0.0 0.140625

0.46875 0.0625 0.71875
0.0625 0.25 0.0
0.71875 0.0 0.2197265625

0.5625 0.0625 0.8125
0.0625 0.25 0.0
0.8125 0.0 0.31640625

0.65625 0.0625 0.90625
0.0625 0.25 0.0
0.90625 0.0 0.4306640625

0.75 0.0625 1.0
0.0625 0.25 0.0
1.0 0.0 0.5625

0.0 0.140625 0.375
0.140625 0.375 0.0
0.375 0.0 0.0

0.09375 0.140625 0.46875
0.140625 0.375 0.0
0.46875 0.0 0.0087890625

0.1875 0.140625 0.5625
0.140625 0.375 0.0
0.5625 0.0 0.03515625

0.28125 0.140625 0.65625
0.140625 0.375 0.0
0.65625 0.0 0.0791015625

0.375 0.140625 0.75
0.140625 0.375 0.0
0.75 0.0 0.140625

0.46875 0.140625 0.84375
0.140625 0.375 0.0
0.84375 0.0 0.2197265625

0.5625 0.140625 0.9375
0.140625 0.375 0.0
0.9375 0.0 0.31640625

0.65625 0.140625 1.03125
0.140625 0.375 0.0
1.03125 0.0 0.4306640625

0.75 0.140625 1.125
0.140625 0.375 0.0
1.125 0.0 0.5625

0.0 0.25 0.5
0.25 0.5 0.0
0.5 0.0 0.0

0.09375 0.25 0.59375
0.25 0.5 0.0
0.59375 0.0 0.0087890625

0.1875 0.25 0.6875
0.25 0.5 0.0
0.6875 0.0 0.03515625

0.28125 0.25 0.78125
0.25 0.5 0.0
0.78125 0.0 0.0791015625

0.375 0.25 0.875
0.25 0.5 0.0
0.875 0.0 0.140625

0.46875 0.25 0.96875
0.25 0.5 0.0
0.96875 0.0 0.2197265625

0.5625 0.25 1.0625
0.25 0.5 0.0
1.0625 0.0 0.31640625

0.65625 0.25 1.15625
0.25 0.5 0.0
1.15625 0.0 0.4306640625

0.75 0.25 1.25
0.25 0.5 0.0
1.25 0.0 0.5625

0.0 0.390625 0.625
0.390625 0.625 0.0
0.625 0.0 0.0

0.09375 0.390625 0.71875
0.390625 0.625 0.0
0.71875 0.0 0.0087890625

0.1875 0.390625 0.8125
0.390625 0.625 0.0
0.8125 0.0 0.03515625

0.28125 0.390625 0.90625
0.390625 0.625 0.0
0.90625 0.0 0.0791015625

0.375 0.390625 1.0
0.390625 0.625 0.0
1.0 0.0 0.140625

0.46875 0.390625 1.09375
0.390625 0.625 0.0
1.09375 0.0 0.2197265625

0.5625 0.390625 1.1875
0.390625 0.625 0.0
1.1875 0.0 0.31640625

0.65625 0.390625 1.28125
0.390625 0.625 0.0
1.28125 0.0 0.4306640625

0.75 0.390625 1.375
0.390625 0.625 0.0
1.375 0.0 0.5625

0.0 0.5625 0.75
0.5625 0.75 0.0
0.75 0.0 0.0

0.09375 0.5625 0.84375
0.5625 0.75 0.0
0.84375 0.0 0.0087890625

0.1875 0.5625 0.9375
0.5625 0.75 0.0
0.9375 0.0 0.03515625

0.28125 0.5625 1.03125
0.5625 0.75 0.0
1.03125 0.0 0.0791015625

0.375 0.5625 1.125
0.5625 0.75 0.0
1.125 0.0 0.140625

0.46875 0.5625 1.21875
0.5625 0.75 0.0
1.21875 0.0 0.2197265625

0.5625 0.5625 1.3125
0.5625 0.75 0.0
1.3125 0.0 0.31640625

0.65625 0.5625 1.40625
0.5625 0.75 0.0
1.40625 0.0 0.4306640625

0.75 0.5625 1.5
0.5625 0.75 0.0
1.5 0.0 0.5625

0.0 0.765625 0.875
0.765625 0.875 0.0
0.875 0.0 0.0

0.09375 0.765625 0.96875
0.765625 0.875 0.0
0.96875 0.0 0.0087890625

0.1875 0.765625 1.0625
0.765625 0.875 0.0
1.0625 0.0 0.03515625

0.28125 0.765625 1.15625
0.765625 0.875 0.0
1.15625 0.0 0.0791015625

0.375 0.765625 1.25
0.765625 0.875 0.0
1.25 0.0 0.140625

0.46875 0.765625 1.34375
0.765625 0.875 0.0
1.34375 0.0 0.2197265625

0.5625 0.765625 1.4375
0.765625 0.875 0.0
1.4375 0.0 0.31640625

0.65625 0.765625 1.53125
0.765625 0.875 0.0
1.53125 0.0 0.4306640625

0.75 0.765625 1.625
0.765625 0.875 0.0
1.625 0.0 0.5625

0.0 1.0 1.0
1.0 1.0 0.0
1.0 0.0 0.0

0.09375 1.0 1.09375
1.0 1.0 0.0
1.09375 0.0 0.0087890625

0.1875 1.0 1.1875
1.0 1.0 0.0
1.1875 0.0 0.03515625

0.28125 1.0 1.28125
1.0 1.0 0.0
1.28125 0.0 0.0791015625

0.375 1.0 1.375
1.0 1.0 0.0
1.375 0.0 0.140625

0.46875 1.0 1.46875
1.0 1.0 0.0
1.46875 0.0 0.2197265625

0.5625 1.0 1.5625
1.0 1.0 0.0
1.5625 0.0 0.31640625

0.65625 1.0 1.65625
1.0 1.0 0.0
1.65625 0.0 0.4306640625

0.75 1.0 1.75
1.0 1.0 0.0
1.75 0.0 0.5625

0.0625 0.0 0.0
0.0 0.0625 0.0625
0.0 0.0625 0.0

0.15625 0.0 0.09375
0.0 0.0625 0.0625
0.09375 0.0625 0.0087890625

0.25 0.0 0.1875
0.0 0.0625 0.0625
0.1875 0.0625 0.03515625

0.34375 0.0 0.28125
0.0 0.0625 0.0625
0.28125 0.0625 0.0791015625

0.4375 0.0 0.375
0.0 0.0625 0.0625
0.375 0.0625 0.140625

0.53125 0.0 0.46875
0.0 0.0625 0.0625
0.46875 0.0625 0.2197265625

0.625 0.0 0.5625
0.0 0.0625 0.0625
0.5625 0.0625 0.31640625

0.71875 0.0 0.65625
0.0 0.0625 0.0625
0.65625 0.0625 0.4306640625

0.8125 0.0 0.75
0.0 0.0625 0.0625
0.75 0.0625 0.5625

0.0625 0.015625 0.125
0.015625 0.1875 0.0625
0.125 0.0625 0.0

0.15625 0.015625 0.21875
0.015625 0.1875 0.0625
0.21875 0.0625 0.0087890625

0.25 0.015625 0.3125
0.015625 0.1875 0.0625
0.3125 0.0625 0.03515625

0.34375 0.015625 0.40625
0.015625 0.1875 0.0625
0.40625 0.0625 0.0791015625

0.4375 0.015625 0.5
0.015625 0.1875 0.0625
0.5 0.0625 0.140625

0.53125 0.015625 0.59375
0.015625 0.1875 0.0625
0.59375 0.0625 0.2197265625

0.625 0.015625 0.6875
0.015625 0.1875 0.0625
0.6875 0.0625 0.31640625

0.71875 0.015625 0.78125
0.015625 0.1875 0.0625
0.78125 0.0625 0.4306640625

0.8125 0.015625 0.875
0.015625 0.1875 0.0625
0.875 0.0625 0.5625

0.0625 0.0625 0.25
0.0625 0.3125 0.0625
0.25 0.0625 0.0

0.15625 0.0625 0.34375
0.0625 0.3125 0.0625
0.34375 0.0625 0.0087890625

0.25 0.0625 0.4375
0.0625 0.3125 0.0625
0.4375 0.0625 0.03515625

0.34375 0.0625 0.53125
0.0625 0.3125 0.0625
0.53125 0.0625 0.0791015625

0.4375 0.0625 0.625
0.0625 0.3125 0.0625
0.625 0.0625 0.140625

0.53125 0.0625 0.71875
0.0625 0.3125 0.0625
0.71875 0.0625 0.2197265625

0.625 0.0625 0.8125
0.0625 0.3125 0.0625
0.8125 0.0625 0.31640625

0.71875 0.0625 0.90625
0.0625 0.3125 0.0625
0.90625 0.0625 0.4306640625

0.8125 0.0625 1.0
0.0625 0.3125 0.0625
1.0 0.0625 0.5625

0.0625 0.140625 0.375
0.140625 0.4375 0.0625
0.375 0.0625 0.0

0.15625 0.140625 0.46875
0.140625 0.4375 0.0625
0.46875 0.0625 0.0087890625

0.25 0.140625 0.5625
0.140625 0.4375 0.0625
0.5625 0.0625 0.03515625

0.34375 0.140625 0.65625
0.140625 0.4375 0.0625
0.65625 0.0625 0.0791015625

0.4375 0.140625 0.75
0.140625 0.4375 0.0625
0.75 0.0625 0.140625

0.53125 0.140625 0.84375
0.140625 0.4375 0.0625
0.84375 0.0625 0.2197265625

0.625 0.140625 0.9375
0.140625 0.4375 0.0625
0.9375 0.0625 0.31640625

0.71875 0.140625 1.03125
0.140625 0.4375 0.0625
1.03125 0.0625 0.4306640625

0.8125 0.140625 1.125
0.140625 0.4375 0.0625
1.125 0.0625 0.5625

0.0625 0.25 0.5
0.25 0.5625 0.0625
0.5 0.0625 0.0

0.15625 0.25 0.59375
0.25 0.5625 0.0625
0.59375 0.0625 0.0087890625

0.25 0.25 0.6875
0.25 0.5625 0.0625
0.6875 0.0625 0.03515625

0.34375 0.25 0.78125
0.25 0.5625 0.0625
0.78125 0.0625 0.0791015625

0.4375 0.25 0.875
0.25 0.5625 0.0625
0.875 0.0625 0.140625

0.53125 0.25 0.96875
0.25 0.5625 0.0625
0.96875 0.0625 0.2197265625

0.625 0.25 1.0625
0.25 0.5625 0.0625
1.0625 0.0625 0.31640625

0.71875 0.25 1.15625
0.25 0.5625 0.0625
1.15625 0.0625 0.4306640625

0.8125 0.25 1.25
0.25 0.5625 0.0625
1.25 0.0625 0.5625

0.0625 0.390625 0.625
0.390625 0.6875 0.0625
0.625 0.0625 0.0

0.15625 0.390625 0.71875
0.390625 0.6875 0.0625
0.71875 0.0625 0.0087890625

0.25 0.390625 0.8125
0.390625 0.6875 0.0625
0.8125 0.0625 0.03515625

0.34375 0.390625 0.90625
0.390625 0.6875 0.0625
0.90625 0.0625 0.0791015625

0.4375 0.390625 1.0
0.390625 0.6875 0.0625
1.0 0.0625 0.140625

0.53125 0.390625 1.09375
0.390625 0.6875 0.0625
1.09375 0.0625 0.2197265625

0.625 0.390625 1.1875
0.390625 0.6875 0.0625
1.1875 0.0625 0.31640625

0.71875 0.390625 1.28125
0.390625 0.6875 0.0625
1.28125 0.0625 0.4306640625

0.8125 0.390625 1.375
0.390625 0.6875 0.0625
1.375 0.0625 0.5625

0.0625 0.5625 0.75
0.5625 0.8125 0.0625
0.75 0.0625 0.0

0.15625 0.5625 0.84375
0.5625 0.8125 0.0625
0.84375 0.0625 0.0087890625

0.25 0.5625 0.9375
0.5625 0.8125 0.0625
0.9375 0.0625 0.03515625

0.34375 0.5625 1.03125
0.5625 0.8125 0.0625
1.03125 0.0625 0.0791015625

0.4375 0.5625 1.125
0.5625 0.8125 0.0625
1.125 0.0625 0.140625

0.53125 0.5625 1.21875
0.5625 0.8125 0.0625
1.21875 0.0625 0.2197265625

0.625 0.5625 1.3125
0.5625 0.8125 0.0625
1.3125 0.0625 0.31640625

0.71875 0.5625 1.40625
0.5625 0.8125 0.0625
1.40625 0.0625 0.4306640625

0.8125 0.5625 1.5
0.5625 0.8125 0.0625
1.5 0.0625 0.5625

0.0625 0.765625 0.875
0.765625 0.9375 0.0625
0.875 0.0625 0.0

0.15625 0.765625 0.96875
0.765625 0.9375 0.0625
0.96875 0.0625 0.0087890625

0.25 0.765625 1.0625
0.765625 0.9375 0.0625
1.0625 0.0625 0.03515625

0.34375 0.765625 1.15625
0.765625 0.9375 0.0625
1.15625 0.0625 0.0791015625

0.4375 0.765625 1.25
0.765625 0.9375 0.0625
1.25 0.0625 0.140625

0.53125 0.765625 1.34375
0.765625 0.9375 0.0625
1.34375 0.0625 0.2197265625

0.625 0.765625 1.4375
0.765625 0.9375 0.0625
1.4375 0.0625 0.31640625

0.71875 0.765625 1.53125
0.765625 0.9375 0.0625
1.53125 0.0625 0.4306640625

0.8125 0.765625 1.625
0.765625 0.9375 0.0625
1.625 0.0625 0.5625

0.0625 1.0 1.0
1.0 1.0625 0.0625
1.0 0.0625 0.0

0.15625 1.0 1.09375
1.0 1.0625 0.0625
1.09375 0.0625 0.0087890625

0.25 1.0 1.1875
1.0 1.0625 0.0625
1.1875 0.0625 0.03515625

0.34375 1.0 1.28125
1.0 1.0625 0.0625
1.28125 0.0625 0.0791015625

0.4375 1.0 1.375
1.0 1.0625 0.0625
1.375 0.0625 0.140625

0.53125 1.0 1.46875
1.0 1.0625 0.0625
1.46875 0.0625 0.2197265625

0.625 1.0 1.5625
1.0 1.0625 0.0625
1.5625 0.0625 0.31640625

0.71875 1.0 1.65625
1.0 1.0625 0.0625
1.65625 0.0625 0.4306640625

0.8125 1.0 1.75
1.0 1.0625 0.0625
1.75 0.0625 0.5625

0.125 0.0 0.0
0.0 0.125 0.125
0.0 0.125 0.0

0.21875 0.0 0.09375
0.0 0.125 0.125
0.09375 0.125 0.0087890625

0.3125 0.0 0.1875
0.0 0.125 0.125
0.1875 0.125 0.03515625

0.40625 0.0 0.28125
0.0 0.125 0.125
0.28125 0.125 0.0791015625

0.5 0.0 0.375
0.0 0.125 0.125
0.375 0.125 0.140625

0.59375 0.0 0.46875
0.0 0.125 0.125
0.46875 0.125 0.2197265625

0.6875 0.0 0.5625
0.0 0.125 0.125
0.5625 0.125 0.31640625

0.78125 0.0 0.65625
0.0 0.125 0.125
0.65625 0.125 0.4306640625

0.875 0.0 0.75
0.0 0.125 0.125
0.75 0.125 0.5625

0.125 0.015625 0.125
0.015625 0.25 0.125
0.125 0.125 0.0

0.21875 0.015625 0.21875
0.015625 0.25 0.125
0.21875 0.125 0.0087890625

0.3125 0.015625 0.3125
0.015625 0.25 0.125
0.3125 0.125 0.03515625

0.40625 0.015625 0.40625
0.015625 0.25 0.125
0.40625 0.125 0.0791015625

0.5 0.015625 0.5
0.015625 0.25 0.125
0.5 0.125 0.140625

0.59375 0.015625 0.59375
0.015625 0.25 0.125
0.59375 0.125 0.2197265625

0.6875 0.015625 0.6875
0.015625 0.25 0.125
0.6875 0.125 0.31640625

0.78125 0.015625 0.78125
0.015625 0.25 0.125
0.78125 0.125 0.4306640625

0.875 0.015625 0.875
0.015625 0.25 0.125
0.875 0.125 0.5625

0.125 0.0625 0.25
0.0625 0.375 0.125
0.25 0.125 0.0

0.21875 0.0625 0.34375
0.0625 0.375 0.125
0.34375 0.125 0.0087890625

0.3125 0.0625 0.4375
0.0625 0.375 0.125
0.4375 0.125 0.03515625

0.40625 0.0625 0.53125
0.0625 0.375 0.125
0.53125 0.125 0.0791015625

0.5 0.0625 0.625
0.0625 0.375 0.125
0.625 0.125 0.140625

0.59375 0.0625 0.71875
0.0625 0.375 0.125
0.71875 0.125 0.2197265625

0.6875 0.0625 0.8125
0.0625 0.375 0.125
0.8125 0.125 0.31640625

0.78125 0.0625 0.90625
0.0625 0.375 0.125
0.90625 0.125 0.4306640625

0.875 0.0625 1.0
0.0625 0.375 0.125
1.0 0.125 0.5625

0.125 0.140625 0.375
0.140625 0.5 0.125
0.375 0.125 0.0

0.21875 0.140625 0.46875
0.140625 0.5 0.125
0.46875 0.125 0.0087890625

0.3125 0.140625 0.5625
0.140625 0.5 0.125
0.5625 0.125 0.03515625

0.40625 0.140625 0.65625
0.140625 0.5 0.125
0.65625 0.125 0.0791015625

0.5 0.140625 0.75
0.140625 0.5 0.125
0.75 0.125 0.140625

0.59375 0.140625 0.84375
0.140625 0.5 0.125
0.84375 0.125 0.2197265625

0.6875 0.140625 0.9375
0.140625 0.5 0.125
0.9375 0.125 0.31640625

0.78125 0.140625 1.03125
0.140625 0.5 0.125
1.03125 0.125 0.4306640625

0.875 0.140625 1.125
0.140625 0.5 0.125
1.125 0.125 0.5625

0.125 0.25 0.5
0.25 0.625 0.125
0.5 0.125 0.0

0.21875 0.25 0.59375
0.25 0.625 0.125
0.59375 0.125 0.0087890625

0.3125 0.25 0.6875
0.25 0.625 0.125
0.6875 0.125 0.03515625

0.40625 0.25 0.78125
0.25 0.625 0.125
0.78125 0.125 0.0791015625

0.5 0.25 0.875
0.25 0.625 0.125
0.875 0.125 0.140625

0.59375 0.25 0.96875
0.25 0.625 0.125
0.96875 0.125 0.2197265625

0.6875 0.25 1.0625
0.25 0.625 0.125
1.0625 0.125 0.31640625

0.78125 0.25 1.15625
0.25 0.625 0.125
1.15625 0.125 0.4306640625

0.875 0.25 1.25
0.25 0.625 0.125
1.25 0.125 0.5625

0.125 0.390625 0.625
0.390625 0.75 0.125
0.625 0.125 0.0

0.21875 0.390625 0.71875
0.390625 0.75 0.125
0.71875 0.125 0.0087890625

0.3125 0.390625 0.8125
0.390625 0.75 0.125
0.8125 0.125 0.03515625

0.40625 0.390625 0.90625
0.390625 0.75 0.125
0.90625 0.125 0.0791015625

0.5 0.390625 1.0
0.390625 0.75 0.125
1.0 0.125 0.140625

0.59375 0.390625 1.09375
0.390625 0.75 0.125
1.09375 0.125 0.2197265625

0.6875 0.390625 1.1875
0.390625 0.75 0.125
1.1875 0.125 0.31640625

0.78125 0.390625 1.28125
0.390625 0.75 0.125
1.28125 0.125 0.4306640625

0.875 0.390625 1.375
0.390625 0.75 0.125
1.375 0.125 0.5625

0.125 0.5625 0.75
0.5625 0.875 0.125
0.75 0.125 0.0

0.21875 0.5625 0.84375
0.5625 0.875 0.125
0.84375 0.125 0.0087890625

0.3125 0.5625 0.9375
0.5625 0.875 0.125
0.9375 0.125 0.03515625

0.40625 0.5625 1.03125
0.5625 0.875 0.125
1.03125 0.125 0.0791015625

0.5 0.5625 1.125
0.5625 0.875 0.125
1.125 0.125 0.140625

0.59375 0.5625 1.21875
0.5625 0.875 0.125
1.21875 0.125 0.2197265625

0.6875 0.5625 1.3125
0.5625 0.875 0.125
1.3125 0.125 0.31640625

0.78125 0.5625 1.40625
0.5625 0.875 0.125
1.40625 0.125 0.4306640625

0.875 0.5625 1.5
0.5625 0.875 0.125
1.5 0.125 0.5625

0.125 0.765625 0.875
0.765625 1.0 0.125
0.875 0.125 0.0

0.21875 0.765625 0.96875
0.765625 1.0 0.125
0.96875 0.125 0.0087890625

0.3125 0.765625 1.0625
0.765625 1.0 0.125
1.0625 0.125 0.03515625

0.40625 0.765625 1.15625
0.765625 1.0 0.125
1.15625 0.125 0.0791015625

0.5 0.765625 1.25
0.765625 1.0 0.125
1.25 0.125 0.140625

0.59375 0.765625 1.34375
0.765625 1.0 0.125
1.34375 0.125 0.2197265625

0.6875 0.765625 1.4375
0.765625 1.0 0.125
1.4375 0.125 0.31640625

0.78125 0.765625 1.53125
0.765625 1.0 0.125
1.53125 0.125 0.4306640625

0.875 0.765625 1.625
0.765625 1.0 0.125
1.625 0.125 0.5625

0.125 1.0 1.0
1.0 1.125 0.125
1.0 0.125 0.0

0.21875 1.0 1.09375
1.0 1.125 0.125
1.09375 0.125 0.0087890625

0.3125 1.0 1.1875
1.0 1.125 0.125
1.1875 0.125 0.03515625

0.40625 1.0 1.28125
1.0 1.125 0.125
1.28125 0.125 0.0791015625

0.5 1.0 1.375
1.0 1.125 0.125
1.375 0.125 0.140625

0.59375 1.0 1.46875
1.0 1.125 0.125
1.46875 0.125 0.2197265625

0.6875 1.0 1.5625
1.0 1.125 0.125
1.5625 0.125 0.31640625

0.78125 1.0 1.65625
1.0 1.125 0.125
1.65625 0.125 0.4306640625

0.875 1.0 1.75
1.0 1.125 0.125
1.75 0.125 0.5625

0.1875 0.0 0.0
0.0 0.1875 0.1875
0.0 0.1875 0.0

0.28125 0.0 0.09375
0.0 0.1875 0.1875
0.09375 0.1875 0.0087890625

0.375 0.0 0.1875
0.0 0.1875 0.1875
0.1875 0.1875 0.03515625

0.46875 0.0 0.28125
0.0 0.1875 0.1875
0.28125 0.1875 0.0791015625

0.5625 0.0 0.375
0.0 0.1875 0.1875
0.375 0.1875 0.140625

0.65625 0.0 0.46875
0.0 0.1875 0.1875
0.46875 0.1875 0.2197265625

0.75 0.0 0.5625
0.0 0.1875 0.1875
0.5625 0.1875 0.31640625

0.84375 0.0 0.65625
0.0 0.1875 0.1875
0.65625 0.1875 0.4306640625

0.9375 0.0 0.75
0.0 0.1875 0.1875
0.75 0.1875 0.5625

0.1875 0.015625 0.125
0.015625 0.3125 0.1875
0.125 0.1875 0.0

0.28125 0.015625 0.21875
0.015625 0.3125 0.1875
0.21875 0.1875 0.0087890625

0.375 0.015625 0.3125
0.015625 0.3125 0.1875
0.3125 0.1875 0.03515625

0.46875 0.015625 0.40625
0.015625 0.3125 0.1875
0.40625 0.1875 0.0791015625

0.5625 0.015625 0.5
0.015625 0.3125 0.1875
0.5 0.1875 0.140625

0.65625 0.015625 0.59375
0.015625 0.3125 0.1875
0.59375 0.1875 0.2197265625

0.75 0.015625 0.6875
0.015625 0.3125 0.1875
0.6875 0.1875 0.31640625

0.84375 0.015625 0.78125
0.015625 0.3125 0.1875
0.78125 0.1875 0.4306640625

0.9375 0.015625 0.875
0.015625 0.3125 0.1875
0.875 0.1875 0.5625

0.1875 0.0625 0.25
0.0625 0.4375 0.1875
0.25 0.1875 0.0

0.28125 0.0625 0.34375
0.0625 0.4375 0.1875
0.34375 0.1875 0.0087890625

0.375 0.0625 0.4375
0.0625 0.4375 0.1875
0.4375 0.1875 0.03515625

0.46875 0.0625 0.53125
0.0625 0.4375 0.1875
0.53125 0.1875 0.0791015625

0.5625 0.0625 0.625
0.0625 0.4375 0.1875
0.625 0.1875 0.140625

0.65625 0.0625 0.71875
0.0625 0.4375 0.1875
0.71875 0.1875 0.2197265625

0.75 0.0625 0.8125
0.0625 0.4375 0.1875
0.8125 0.1875 0.31640625

0.84375 0.0625 0.90625
0.0625 0.4375 0.1875
0.90625 0.1875 0.4306640625

0.9375 0.0625 1.0
0.0625 0.4375 0.1875
1.0 0.1875 0.5625

0.1875 0.140625 0.375
0.140625 0.5625 0.1875
0.375 0.1875 0.0

0.28125 0.140625 0.46875
0.140625 0.5625 0.1875
0.46875 0.1875 0.0087890625

0.375 0.140625 0.5625
0.140625 0.5625 0.1875
0.5625 0.1875 0.03515625

0.46875 0.140625 0.65625
0.140625 0.5625 0.1875
0.65625 0.1875 0.0791015625

0.5625 0.140625 0.75
0.140625 0.5625 0.1875
0.75 0.1875 0.140625

0.65625 0.140625 0.84375
0.140625 0.5625 0.1875
0.84375 0.1875 0.2197265625

0.75 0.140625 0.9375
0.140625 0.5625 0.1875
0.9375 0.1875 0.31640625

0.84375 0.140625 1.03125
0.140625 0.5625 0.1875
1.03125 0.1875 0.4306640625

0.9375 0.140625 1.125
0.140625 0.5625 0.1875
1.125 0.1875 0.5625

0.1875 0.25 0.5
0.25 0.6875 0.1875
0.5 0.1875 0.0

0.28125 0.25 0.59375
0.25 0.6875 0.1875
0.59375 0.1875 0.0087890625

0.375 0.25 0.6875
0.25 0.6875 0.1875
0.6875 0.1875 0.03515625

0.46875 0.25 0.78125
0.25 0.6875 0.1875
0.78125 0.1875 0.0791015625

0.5625 0.25 0.875
0.25 0.6875 0.1875
0.875 0.1875 0.140625

0.65625 0.25 0.96875
0.25 0.6875 0.1875
0.96875 0.1875 0.2197265625

0.75 0.25 1.0625
0.25 0.6875 0.1875
1.0625 0.1875 0.31640625

0.84375 0.25 1.15625
0.25 0.6875 0.1875
1.15625 0.1875 0.4306640625

0.9375 0.25 1.25
0.25 0.6875 0.1875
1.25 0.1875 0.5625

0.1875 0.390625 0.625
0.390625 0.8125 0.1875
0.625 0.1875 0.0

0.28125 0.390625 0.71875
0.390625 0.8125 0.1875
0.71875 0.1875 0.0087890625

0.375 0.390625 0.8125
0.390625 0.8125 0.1875
0.8125 0.1875 0.03515625

0.46875 0.390625 0.90625
0.390625 0.8125 0.1875
0.90625 0.1875 0.0791015625

0.5625 0.390625 1.0
0.390625 0.8125 0.1875
1.0 0.1875 0.140625

0.65625 0.390625 1.09375
0.390625 0.8125 0.1875
1.09375 0.1875 0.2197265625

0.75 0.390625 1.1875
0.390625 0.8125 0.1875
1.1875 0.1875 0.31640625

0.84375 0.390625 1.28125
0.390625 0.8125 0.1875
1.28125 0.1875 0.4306640625

0.9375 0.390625 1.375
0.390625 0.8125 0.1875
1.375 0.1875 0.5625

0.1875 0.5625 0.75
0.5625 0.9375 0.1875
0.75 0.1875 0.0

0.28125 0.5625 0.84375
0.5625 0.9375 0.1875
0.84375 0.1875 0.0087890625

0.375 0.5625 0.9375
0.5625 0.9375 0.1875
0.9375 0.1875 0.03515625

0.46875 0.5625 1.03125
0.5625 0.9375 0.1875
1.03125 0.1875 0.0791015625

0.5625 0.5625 1.125
0.5625 0.9375 0.1875
1.125 0.1875 0.140625

0.65625 0.5625 1.21875
0.5625 0.9375 0.1875
1.21875 0.1875 0.2197265625

0.75 0.5625 1.3125
0.5625 0.9375 0.1875
1.3125 0.1875 0.31640625

0.84375 0.5625 1.40625
0.5625 0.9375 0.1875
1.40625 0.1875 0.4306640625

0.9375 0.5625 1.5
0.5625 0.9375 0.1875
1.5 0.1875 0.5625

0.1875 0.765625 0.875
0.765625 1.0625 0.1875
0.875 0.1875 0.0

0.28125 0.765625 0.96875
0.765625 1.0625 0.1875
0.96875 0.1875 0.0087890625

0.375 0.765625 1.0625
0.765625 1.0625 0.1875
1.0625 0.1875 0.03515625

0.46875 0.765625 1.15625
0.765625 1.0625 0.1875
1.15625 0.1875 0.0791015625

0.5625 0.765625 1.25
0.765625 1.0625 0.1875